s 0.198828300 _13_ AGT  --- 317 tcp 40 [0 0 0 0] ------- [4194307:0 4194310:0 32 0] [0 0] 0 0
r 0.198828300 _13_ RTR  --- 317 tcp 40 [0 0 0 0] ------- [4194307:0 4194310:0 32 0] [0 0] 0 0
f 0.198828300 _13_ RTR  --- 0 AODV 48 [0 0 0 0] ------- [4194307:255 2147483647:255 30 0] [0x2 1 1 [4194310 0] [4194307 4]] (REQUEST)
s 0.782330000 _11_ AGT  --- 972 tcp 40 [0 0 0 0] ------- [4194305:0 10240:1 32 0] [0 0] 0 0
r 0.782330000 _11_ RTR  --- 972 tcp 40 [0 0 0 0] ------- [4194305:0 10240:1 32 0] [0 0] 0 0
f 0.782330000 _11_ RTR  --- 0 AODV 48 [0 0 0 0] ------- [4194305:255 2147483647:255 30 0] [0x2 1 1 [10240 0] [4194305 4]] (REQUEST)
s 1.233680000 _16_ AGT  --- 1524 tcp 40 [0 0 0 0] ------- [4194310:1 4194307:1 32 0] [0 0] 0 0
r 1.233680000 _16_ RTR  --- 1524 tcp 40 [0 0 0 0] ------- [4194310:1 4194307:1 32 0] [0 0] 0 0
f 1.233680000 _16_ RTR  --- 0 AODV 48 [0 0 0 0] ------- [4194310:255 2147483647:255 30 0] [0x2 1 1 [4194307 0] [4194310 4]] (REQUEST)
f 2.000000000 _13_ RTR  --- 0 AODV 48 [0 0 0 0] ------- [4194307:255 2147483647:255 30 0] [0x2 1 2 [4194310 0] [4194307 6]] (REQUEST)
f 3.000000000 _11_ RTR  --- 0 AODV 48 [0 0 0 0] ------- [4194305:255 2147483647:255 30 0] [0x2 1 2 [10240 0] [4194305 6]] (REQUEST)
s 3.198828300 _13_ AGT  --- 3874 tcp 40 [0 0 0 0] ------- [4194307:0 4194310:0 32 0] [0 0] 0 0
r 3.198828300 _13_ RTR  --- 3874 tcp 40 [0 0 0 0] ------- [4194307:0 4194310:0 32 0] [0 0] 0 0
f 3.500000000 _16_ RTR  --- 0 AODV 48 [0 0 0 0] ------- [4194310:255 2147483647:255 30 0] [0x2 1 2 [4194307 0] [4194310 6]] (REQUEST)
s 3.782330000 _11_ AGT  --- 4586 tcp 40 [0 0 0 0] ------- [4194305:0 10240:1 32 0] [0 0] 0 0
r 3.782330000 _11_ RTR  --- 4586 tcp 40 [0 0 0 0] ------- [4194305:0 10240:1 32 0] [0 0] 0 0
s 4.188139000 _14_ AGT  --- 5080 tcp 40 [0 0 0 0] ------- [4194308:0 10240:3 32 0] [0 0] 0 0
r 4.188139000 _14_ RTR  --- 5080 tcp 40 [0 0 0 0] ------- [4194308:0 10240:3 32 0] [0 0] 0 0
f 4.188139000 _14_ RTR  --- 0 AODV 48 [0 0 0 0] ------- [4194308:255 2147483647:255 30 0] [0x2 1 1 [10240 0] [4194308 4]] (REQUEST)
s 4.233680000 _16_ AGT  --- 5136 tcp 40 [0 0 0 0] ------- [4194310:1 4194307:1 32 0] [0 0] 0 0
r 4.233680000 _16_ RTR  --- 5136 tcp 40 [0 0 0 0] ------- [4194310:1 4194307:1 32 0] [0 0] 0 0
r 4.383125000 _10_ RTR  --- 5317 tcp 40 [0 0 0 0] ------- [10240:4 4194305:1 29 0] [0 0] 0 0
f 4.383125000 _10_ RTR  --- 0 AODV 32 [0 0 0 0] ------- [4194304:255 2147483647:255 1 0] [0x8 1 [4194305 0] 0.000000] (ERROR)
s 4.430628000 _15_ AGT  --- 5378 tcp 40 [0 0 0 0] ------- [4194309:0 4194306:0 32 0] [0 0] 0 0
r 4.430628000 _15_ RTR  --- 5378 tcp 40 [0 0 0 0] ------- [4194309:0 4194306:0 32 0] [0 0] 0 0
f 4.430628000 _15_ RTR  --- 0 AODV 48 [0 0 0 0] ------- [4194309:255 2147483647:255 30 0] [0x2 1 1 [4194306 0] [4194309 4]] (REQUEST)
f 6.000000000 _13_ RTR  --- 0 AODV 48 [0 0 0 0] ------- [4194307:255 2147483647:255 30 0] [0x2 1 3 [4194310 0] [4194307 8]] (REQUEST)
f 6.000000000 _14_ RTR  --- 0 AODV 48 [0 0 0 0] ------- [4194308:255 2147483647:255 30 0] [0x2 1 2 [10240 0] [4194308 6]] (REQUEST)
f 6.500000000 _15_ RTR  --- 0 AODV 48 [0 0 0 0] ------- [4194309:255 2147483647:255 30 0] [0x2 1 2 [4194306 0] [4194309 6]] (REQUEST)
f 7.000000000 _11_ RTR  --- 0 AODV 48 [0 0 0 0] ------- [4194305:255 2147483647:255 30 0] [0x2 1 3 [10240 0] [4194305 8]] (REQUEST)
s 7.188139000 _14_ AGT  --- 8651 tcp 40 [0 0 0 0] ------- [4194308:0 10240:3 32 0] [0 0] 0 0
r 7.188139000 _14_ RTR  --- 8651 tcp 40 [0 0 0 0] ------- [4194308:0 10240:3 32 0] [0 0] 0 0
r 7.383125000 _10_ RTR  --- 8887 tcp 40 [0 0 0 0] ------- [10240:4 4194305:1 29 0] [0 0] 0 0
f 7.383125000 _10_ RTR  --- 0 AODV 32 [0 0 0 0] ------- [4194304:255 2147483647:255 1 0] [0x8 1 [4194305 0] 0.000000] (ERROR)
s 7.430628000 _15_ AGT  --- 8949 tcp 40 [0 0 0 0] ------- [4194309:0 4194306:0 32 0] [0 0] 0 0
r 7.430628000 _15_ RTR  --- 8949 tcp 40 [0 0 0 0] ------- [4194309:0 4194306:0 32 0] [0 0] 0 0
f 7.500000000 _16_ RTR  --- 0 AODV 48 [0 0 0 0] ------- [4194310:255 2147483647:255 30 0] [0x2 1 3 [4194307 0] [4194310 8]] (REQUEST)
s 9.198828300 _13_ AGT  --- 11059 tcp 40 [0 0 0 0] ------- [4194307:0 4194310:0 32 0] [0 0] 0 0
r 9.198828300 _13_ RTR  --- 11059 tcp 40 [0 0 0 0] ------- [4194307:0 4194310:0 32 0] [0 0] 0 0
s 9.782330000 _11_ AGT  --- 11772 tcp 40 [0 0 0 0] ------- [4194305:0 10240:1 32 0] [0 0] 0 0
r 9.782330000 _11_ RTR  --- 11772 tcp 40 [0 0 0 0] ------- [4194305:0 10240:1 32 0] [0 0] 0 0
f 10.000000000 _14_ RTR  --- 0 AODV 48 [0 0 0 0] ------- [4194308:255 2147483647:255 30 0] [0x2 1 3 [10240 0] [4194308 8]] (REQUEST)
s 10.233680000 _16_ AGT  --- 12321 tcp 40 [0 0 0 0] ------- [4194310:1 4194307:1 32 0] [0 0] 0 0
r 10.233680000 _16_ RTR  --- 12321 tcp 40 [0 0 0 0] ------- [4194310:1 4194307:1 32 0] [0 0] 0 0
f 10.500000000 _15_ RTR  --- 0 AODV 48 [0 0 0 0] ------- [4194309:255 2147483647:255 30 0] [0x2 1 3 [4194306 0] [4194309 8]] (REQUEST)
f 11.500000000 _13_ RTR  --- 0 AODV 48 [0 0 0 0] ------- [4194307:255 2147483647:255 30 0] [0x2 1 4 [4194310 0] [4194307 10]] (REQUEST)
f 12.500000000 _11_ RTR  --- 0 AODV 48 [0 0 0 0] ------- [4194305:255 2147483647:255 30 0] [0x2 1 4 [10240 0] [4194305 10]] (REQUEST)
f 13.000000000 _16_ RTR  --- 0 AODV 48 [0 0 0 0] ------- [4194310:255 2147483647:255 30 0] [0x2 1 4 [4194307 0] [4194310 10]] (REQUEST)
s 13.188139000 _14_ AGT  --- 15832 tcp 40 [0 0 0 0] ------- [4194308:0 10240:3 32 0] [0 0] 0 0
r 13.188139000 _14_ RTR  --- 15832 tcp 40 [0 0 0 0] ------- [4194308:0 10240:3 32 0] [0 0] 0 0
r 13.383125000 _10_ RTR  --- 16071 tcp 40 [0 0 0 0] ------- [10240:4 4194305:1 29 0] [0 0] 0 0
f 13.383125000 _10_ RTR  --- 0 AODV 32 [0 0 0 0] ------- [4194304:255 2147483647:255 1 0] [0x8 1 [4194305 0] 0.000000] (ERROR)
s 13.430628000 _15_ AGT  --- 16130 tcp 40 [0 0 0 0] ------- [4194309:0 4194306:0 32 0] [0 0] 0 0
r 13.430628000 _15_ RTR  --- 16130 tcp 40 [0 0 0 0] ------- [4194309:0 4194306:0 32 0] [0 0] 0 0
f 15.500000000 _14_ RTR  --- 0 AODV 48 [0 0 0 0] ------- [4194308:255 2147483647:255 30 0] [0x2 1 4 [10240 0] [4194308 10]] (REQUEST)
f 16.000000000 _15_ RTR  --- 0 AODV 48 [0 0 0 0] ------- [4194309:255 2147483647:255 30 0] [0x2 1 4 [4194306 0] [4194309 10]] (REQUEST)
s 21.198828300 _13_ AGT  --- 25412 tcp 40 [0 0 0 0] ------- [4194307:0 4194310:0 32 0] [0 0] 0 0
r 21.198828300 _13_ RTR  --- 25412 tcp 40 [0 0 0 0] ------- [4194307:0 4194310:0 32 0] [0 0] 0 0
s 21.782330000 _11_ AGT  --- 26121 tcp 40 [0 0 0 0] ------- [4194305:0 10240:1 32 0] [0 0] 0 0
r 21.782330000 _11_ RTR  --- 26121 tcp 40 [0 0 0 0] ------- [4194305:0 10240:1 32 0] [0 0] 0 0
s 22.233680000 _16_ AGT  --- 26670 tcp 40 [0 0 0 0] ------- [4194310:1 4194307:1 32 0] [0 0] 0 0
r 22.233680000 _16_ RTR  --- 26670 tcp 40 [0 0 0 0] ------- [4194310:1 4194307:1 32 0] [0 0] 0 0
s 25.188139000 _14_ AGT  --- 30092 tcp 40 [0 0 0 0] ------- [4194308:0 10240:3 32 0] [0 0] 0 0
r 25.188139000 _14_ RTR  --- 30092 tcp 40 [0 0 0 0] ------- [4194308:0 10240:3 32 0] [0 0] 0 0
r 25.384327000 _10_ RTR  --- 30331 tcp 40 [0 0 0 0] ------- [10240:4 4194305:1 26 0] [0 0] 0 0
f 25.384327000 _10_ RTR  --- 0 AODV 32 [0 0 0 0] ------- [4194304:255 2147483647:255 1 0] [0x8 1 [4194305 0] 0.000000] (ERROR)
s 25.430628000 _15_ AGT  --- 30393 tcp 40 [0 0 0 0] ------- [4194309:0 4194306:0 32 0] [0 0] 0 0
r 25.430628000 _15_ RTR  --- 30393 tcp 40 [0 0 0 0] ------- [4194309:0 4194306:0 32 0] [0 0] 0 0
f 29.000000000 _13_ RTR  --- 0 AODV 48 [0 0 0 0] ------- [4194307:255 2147483647:255 30 0] [0x2 1 5 [4194310 0] [4194307 12]] (REQUEST)
f 30.000000000 _11_ RTR  --- 0 AODV 48 [0 0 0 0] ------- [4194305:255 2147483647:255 30 0] [0x2 1 5 [10240 0] [4194305 12]] (REQUEST)
f 30.500000000 _16_ RTR  --- 0 AODV 48 [0 0 0 0] ------- [4194310:255 2147483647:255 30 0] [0x2 1 5 [4194307 0] [4194310 12]] (REQUEST)
f 31.000000000 _13_ RTR  --- 0 AODV 48 [0 0 0 0] ------- [4194307:255 2147483647:255 30 0] [0x2 1 6 [4194310 0] [4194307 14]] (REQUEST)
f 32.000000000 _11_ RTR  --- 0 AODV 48 [0 0 0 0] ------- [4194305:255 2147483647:255 30 0] [0x2 1 6 [10240 0] [4194305 14]] (REQUEST)
f 32.500000000 _16_ RTR  --- 0 AODV 48 [0 0 0 0] ------- [4194310:255 2147483647:255 30 0] [0x2 1 6 [4194307 0] [4194310 14]] (REQUEST)
f 33.000000000 _14_ RTR  --- 0 AODV 48 [0 0 0 0] ------- [4194308:255 2147483647:255 30 0] [0x2 1 5 [10240 0] [4194308 12]] (REQUEST)
f 33.500000000 _15_ RTR  --- 0 AODV 48 [0 0 0 0] ------- [4194309:255 2147483647:255 30 0] [0x2 1 5 [4194306 0] [4194309 12]] (REQUEST)
f 35.000000000 _13_ RTR  --- 0 AODV 48 [0 0 0 0] ------- [4194307:255 2147483647:255 30 0] [0x2 1 7 [4194310 0] [4194307 16]] (REQUEST)
f 35.000000000 _14_ RTR  --- 0 AODV 48 [0 0 0 0] ------- [4194308:255 2147483647:255 30 0] [0x2 1 6 [10240 0] [4194308 14]] (REQUEST)
f 35.500000000 _15_ RTR  --- 0 AODV 48 [0 0 0 0] ------- [4194309:255 2147483647:255 30 0] [0x2 1 6 [4194306 0] [4194309 14]] (REQUEST)
f 36.000000000 _11_ RTR  --- 0 AODV 48 [0 0 0 0] ------- [4194305:255 2147483647:255 30 0] [0x2 1 7 [10240 0] [4194305 16]] (REQUEST)
f 36.500000000 _16_ RTR  --- 0 AODV 48 [0 0 0 0] ------- [4194310:255 2147483647:255 30 0] [0x2 1 7 [4194307 0] [4194310 16]] (REQUEST)
f 39.000000000 _14_ RTR  --- 0 AODV 48 [0 0 0 0] ------- [4194308:255 2147483647:255 30 0] [0x2 1 7 [10240 0] [4194308 16]] (REQUEST)
f 39.500000000 _15_ RTR  --- 0 AODV 48 [0 0 0 0] ------- [4194309:255 2147483647:255 30 0] [0x2 1 7 [4194306 0] [4194309 16]] (REQUEST)
f 40.500000000 _13_ RTR  --- 0 AODV 48 [0 0 0 0] ------- [4194307:255 2147483647:255 30 0] [0x2 1 8 [4194310 0] [4194307 18]] (REQUEST)
f 41.500000000 _11_ RTR  --- 0 AODV 48 [0 0 0 0] ------- [4194305:255 2147483647:255 30 0] [0x2 1 8 [10240 0] [4194305 18]] (REQUEST)
f 42.000000000 _16_ RTR  --- 0 AODV 48 [0 0 0 0] ------- [4194310:255 2147483647:255 30 0] [0x2 1 8 [4194307 0] [4194310 18]] (REQUEST)
f 44.500000000 _14_ RTR  --- 0 AODV 48 [0 0 0 0] ------- [4194308:255 2147483647:255 30 0] [0x2 1 8 [10240 0] [4194308 18]] (REQUEST)
f 45.000000000 _15_ RTR  --- 0 AODV 48 [0 0 0 0] ------- [4194309:255 2147483647:255 30 0] [0x2 1 8 [4194306 0] [4194309 18]] (REQUEST)
s 45.198828300 _13_ AGT  --- 53976 tcp 40 [0 0 0 0] ------- [4194307:0 4194310:0 32 0] [0 0] 0 0
r 45.198828300 _13_ RTR  --- 53976 tcp 40 [0 0 0 0] ------- [4194307:0 4194310:0 32 0] [0 0] 0 0
s 45.782330000 _11_ AGT  --- 54644 tcp 40 [0 0 0 0] ------- [4194305:0 10240:1 32 0] [0 0] 0 0
r 45.782330000 _11_ RTR  --- 54644 tcp 40 [0 0 0 0] ------- [4194305:0 10240:1 32 0] [0 0] 0 0
s 46.233680000 _16_ AGT  --- 55197 tcp 40 [0 0 0 0] ------- [4194310:1 4194307:1 32 0] [0 0] 0 0
r 46.233680000 _16_ RTR  --- 55197 tcp 40 [0 0 0 0] ------- [4194310:1 4194307:1 32 0] [0 0] 0 0
s 49.188139000 _14_ AGT  --- 58749 tcp 40 [0 0 0 0] ------- [4194308:0 10240:3 32 0] [0 0] 0 0
r 49.188139000 _14_ RTR  --- 58749 tcp 40 [0 0 0 0] ------- [4194308:0 10240:3 32 0] [0 0] 0 0
r 49.383125000 _10_ RTR  --- 58985 tcp 40 [0 0 0 0] ------- [10240:4 4194305:1 29 0] [0 0] 0 0
f 49.383125000 _10_ RTR  --- 0 AODV 32 [0 0 0 0] ------- [4194304:255 2147483647:255 1 0] [0x8 1 [4194305 0] 0.000000] (ERROR)
s 49.430628000 _15_ AGT  --- 59046 tcp 40 [0 0 0 0] ------- [4194309:0 4194306:0 32 0] [0 0] 0 0
r 49.430628000 _15_ RTR  --- 59046 tcp 40 [0 0 0 0] ------- [4194309:0 4194306:0 32 0] [0 0] 0 0
